TITLE = "photodiode"
VARIABLES = "x", "y", "AtContactNode", "ContactSurfaceArea", "NSurfaceNormal_x", "NSurfaceNormal_y", "NodeVolume", "SurfaceArea", "coordinate_index", "node_index", "EdgeCouple", "EdgeInverseLength", "EdgeLength", "EdgeNodeVolume", "edge_index", "unitx", "unity", "ElementEdgeCouple", "ElementNodeVolume"
ZONE T="n_region" NODES=3238, ELEMENTS=6260, DATAPACKING=BLOCK, ZONETYPE=FETRIANGLE, VARLOCATION=([18,19]=CELLCENTERED)
0.00035 0.00085 0.00085 0.00035 0.000357463 0.000364925 0.000372388 0.000379851 0.000387313 0.000394776 0.000402239 0.000409701 0.000417164 0.000424627 0.00043209 0.000439552 0.000447015 0.000454478 0.00046194 0.000469403 0.000476866 0.000484328 0.000491791 0.000499254 0.000506716 0.000514179 0.000521642 0.000529104 0.000536567 0.00054403 0.000551493 0.000558955 0.000566418 0.000573881 0.000581343 0.000588806 0.000596269 0.000603731 0.000611194 0.000618657 0.000626119 0.000633582 0.000641045 0.000648507 0.00065597 0.000663433 0.000670896 0.000678358 0.000685821 0.000693284 0.000700746 0.000708209 0.000715672 0.000723134 0.000730597 0.00073806 0.000745522 0.000752985 0.000760448 0.00076791 0.000775373 0.000782836 0.000790299 0.000797761 0.000805224 0.000812687 0.000820149 0.000827612 0.000835075 0.000842537 0.00085 0.00085 0.00085 0.00085 0.00085 0.00085 0.00085 0.00085 0.00085 0.00085 0.00085 0.00085 0.00085 0.00085 0.00085 0.00085 0.00085 0.00085 0.00085 0.00085 0.00085 0.00085 0.00085 0.00085 0.00085 0.00085 0.00085 0.00085 0.00085 0.00085 0.00085 0.00085 0.00085 0.00085 0.00085 0.00085 0.00085 0.00085 0.00085 0.000842537 0.000835075 0.000827612 0.000820149 0.000812687 0.000805224 0.000797761 0.000790299 0.000782836 0.000775373 0.00076791 0.000760448 0.000752985 0.000745522 0.00073806 0.000730597 0.000723134 0.000715672 0.000708209 0.000700746 0.000693284 0.000685821 0.000678358 0.000670896 0.000663433 0.00065597 0.000648507 0.000641045 0.000633582 0.000626119 0.000618657 0.000611194 0.000603731 0.000596269 0.000588806 0.000581343 0.000573881 0.000566418 0.000558955 0.000551493 0.00054403 0.000536567 0.000529104 0.000521642 0.000514179 0.000506716 0.000499254 0.000491791 0.000484328 0.000476866 0.000469403 0.00046194 0.000454478 0.000447015 0.000439552 0.00043209 0.000424627 0.000417164 0.000409701 0.000402239 0.000394776 0.000387313 0.000379851 0.000372388 0.000364925 0.000357463 0.00035 0.00035 0.00035 0.00035 0.00035 0.00035 0.00035 0.00035 0.00035 0.00035 0.00035 0.00035 0.00035 0.00035 0.00035 0.00035 0.00035 0.00035 0.00035 0.00035 0.00035 0.00035 0.00035 0.00035 0.00035 0.00035 0.00035 0.00035 0.00035 0.00035 0.00035 0.00035 0.00035 0.00035 0.00035 0.00035 0.00035 0.00035 0.00035 0.000697038 0.000503017 0.0005473 0.000652239 0.000592567 0.000526124 0.000570186 0.00063743 0.000696963 0.000356496 0.000843281 0.000480095 0.000843505 0.000356572 0.000614236 0.000734328 0.000734354 0.000466229 0.000356501 0.000844143 0.000442249 0.000356545 0.000843522 0.000772284 0.000772196 0.000428219 0.000843352 0.000356495 0.000666568 0.000414161 0.000843249 0.000356705 0.000843977 0.000356495 0.000802276 0.000802141 0.000398453 0.000570249 0.000592734 0.00067413 0.000525976 0.000614583 0.000547901 0.000504096 0.000390063 0.000843505 0.000356667 0.000842862 0.000356495 0.000824554 0.000823541 0.000376195 0.000356494 0.000843505 0.000843504 0.00035651 0.000843792 0.000843091 0.000843382 0.000356581 0.000356533 0.000356487 0.000842686 0.000356495 0.000712137 0.000630234 0.000682292 0.000652239 0.000488218 0.000712284 0.000750227 0.000466201 0.000749174 0.000450746 0.000786567 0.000428189 0.000414229 0.000376057 0.000786754 0.000356457 0.000843675 0.000356325 0.000843675 0.000356464 0.000362978 0.000362989 0.000369471 0.000369478 0.000375958 0.000375965 0.000382443 0.00038245 0.000388927 0.000388934 0.000395411 0.000395418 0.000401894 0.000401903 0.000408396 0.000408392 0.000414885 0.000414873 0.000421358 0.000421349 0.000427837 0.000427828 0.000434319 0.000434307 0.00044079 0.000440783 0.000447268 0.00044726 0.000453755 0.000453738 0.000460219 0.000460212 0.000466692 0.000466687 0.000473177 0.000473163 0.00047964 0.000479639 0.00048611 0.000486112 0.000492582 0.000492583 0.000499052 0.000499055 0.000505523 0.000505524 0.000511989 0.000511994 0.000518459 0.000499057 0.000518466 0.000524936 0.000524936 0.000531407 0.00053141 0.00053787 0.000537878 0.000544341 0.000544348 0.00055081 0.000531413 0.000550804 0.000557277 0.00055727 0.000563752 0.000563753 0.000570224 0.000570225 0.000576694 0.000576695 0.000583164 0.000563773 0.000583165 0.000589628 0.000589643 0.000596102 0.000596122 0.000602579 0.000602582 0.000609042 0.000609041 0.000615501 0.000615499 0.000621967 0.000621979 0.000628443 0.000628444 0.000634914 0.000634922 0.000641383 0.000641391 0.000647856 0.000647864 0.000654327 0.000654321 0.000660791 0.00066081 0.000667273 0.000667266 0.000673738 0.000673752 0.000680216 0.000680209 0.000686685 0.000686692 0.000693163 0.000693156 0.000466692 0.000699635 0.000699641 0.000699628 0.000706113 0.00070612 0.000563764 0.000712593 0.0007126 0.000719072 0.000719079 0.000712607 0.000719086 0.000712613 0.000725558 0.000725565 0.000537875 0.000732038 0.000732044 0.000440787 0.000738518 0.000738524 0.000512008 0.000744998 0.000744992 0.000745004 0.000738531 0.000745003 0.000738536 0.000745007 0.000751465 0.000738542 0.000745019 0.000486116 0.00073855 0.00074503 0.000414876 0.000751498 0.000719065 0.00073856 0.000732081 0.000751508 0.000757976 0.000466698 0.000732091 0.000725613 0.000757983 0.000764454 0.00076446 0.000770932 0.000725622 0.000719144 0.000719151 0.000712676 0.000770938 0.000777412 0.000777406 0.000447304 0.000783887 0.000783881 0.000783892 0.000757993 0.000725623 0.000712683 0.000706209 0.000706202 0.000699736 0.000699729 0.000693262 0.000693255 0.000686789 0.000686796 0.000680323 0.000680316 0.00067385 0.000673858 0.000667386 0.000667377 0.000660912 0.000660921 0.000654448 0.000654433 0.000647974 0.000647983 0.000641512 0.000641496 0.000635039 0.000635047 0.000628577 0.000628569 0.000622106 0.000622114 0.000615644 0.000615635 0.000609173 0.000609181 0.000602711 0.000602703 0.000596241 0.000596249 0.000589779 0.000589771 0.000583309 0.000583301 0.000576839 0.000576848 0.000570378 0.00057037 0.000563908 0.000563917 0.000557447 0.000557439 0.000550978 0.000550969 0.000544508 0.000544499 0.000538038 0.000538047 0.000531577 0.000531568 0.000525106 0.000525097 0.000518635 0.000518626 0.000512162 0.000512154 0.000505689 0.000505698 0.000499225 0.000499215 0.00049275 0.00049274 0.000486274 0.000486265 0.000479797 0.000479807 0.000473329 0.000473319 0.000466849 0.00046684 0.00046037 0.000460379 0.00046036 0.000453899 0.000453908 0.000447427 0.000447437 0.000440956 0.000440965 0.000447446 0.000440975 0.000434494 0.000434503 0.000447455 0.000440946 0.000525115 0.000499234 0.000428022 0.000428032 0.000466831 0.000460351 0.000557456 0.000492732 0.00042155 0.000421561 0.000428042 0.000466822 0.000460343 0.000518617 0.000421572 0.000428053 0.000415089 0.000466813 0.000460334 0.000453863 0.000453854 0.000447383 0.000447375 0.000440901 0.000440894 0.000434419 0.00043441 0.000427935 0.000427926 0.000421451 0.000421441 0.00042146 0.000414966 0.000414956 0.000421539 0.0004151 0.00055096 0.000453847 0.000427918 0.000706216 0.000790368 0.000790374 0.000408478 0.000408469 0.000408618 0.000408628 0.00039543 0.000427881 0.00040199 0.000402 0.000401982 0.000408461 0.000401973 0.000408452 0.000401966 0.00079685 0.000796855 0.000790379 0.00079686 0.000402149 0.000402147 0.000402157 0.00040864 0.000408444 0.000401959 0.000790386 0.000402169 0.000803336 0.000803341 0.00039551 0.000395519 0.000395685 0.000699722 0.000395489 0.00041493 0.00040865 0.000408415 0.000414922 0.000421407 0.00040218 0.000809817 0.000809821 0.000389028 0.000389037 0.000395529 0.000389047 0.000395538 0.000389063 0.000395547 0.000389073 0.000395557 0.000389077 0.000395565 0.000402045 0.000389086 0.000395574 0.000389095 0.000453926 0.000453934 0.000460404 0.000460413 0.000466881 0.000466891 0.000460423 0.0004669 0.000460435 0.000466911 0.000473375 0.000473385 0.000479849 0.000460445 0.000479859 0.000486322 0.000486332 0.000492794 0.000492785 0.000499257 0.000499266 0.000505727 0.000505737 0.000512198 0.000479869 0.000512199 0.000518666 0.000518668 0.00052513 0.000525123 0.00053159 0.000531598 0.000538058 0.000473292 0.000473283 0.000479761 0.000479752 0.00048623 0.000486221 0.000492697 0.000479746 0.000492688 0.000499164 0.000499173 0.000505638 0.000505648 0.000512113 0.000803345 0.000732059 0.000706135 0.000706142 0.000699665 0.000699673 0.000693195 0.000693208 0.000686727 0.000499155 0.000693149 0.00069962 0.000693143 0.000699611 0.000693136 0.000699603 0.000693129 0.000699598 0.000693123 0.000699592 0.000706067 0.000693116 0.00070606 0.000712536 0.00071253 0.000719006 0.000719 0.000725476 0.00072547 0.000731946 0.000719001 0.000731942 0.000738419 0.000738424 0.000744896 0.000744891 0.000751369 0.000751376 0.000757849 0.000757856 0.000757843 0.000764323 0.000764316 0.000686648 0.000686642 0.000680174 0.000680168 0.000673702 0.000673694 0.000667229 0.000667233 0.000660758 0.000660775 0.00065429 0.000673724 0.000654278 0.000647815 0.000770797 0.00077079 0.000647807 0.000641343 0.000764309 0.000654309 0.000641336 0.000634886 0.000770782 0.000634882 0.000628412 0.000628433 0.000621945 0.000621947 0.000615478 0.000615485 0.00060901 0.000609014 0.000602545 0.000602539 0.000596075 0.000596069 0.000589607 0.000777263 0.000777255 0.000764301 0.000589601 0.000583138 0.000783736 0.000783728 0.000602551 0.000583144 0.000576675 0.000576669 0.000570207 0.000570201 0.000563738 0.00059607 0.000576681 0.000654293 0.000790211 0.000790219 0.000790202 0.000563732 0.00055727 0.000557276 0.000550807 0.000550801 0.000544338 0.00078372 0.000570194 0.000544332 0.00053787 0.000719013 0.000790193 0.000544345 0.000796674 0.000537864 0.000531401 0.000796665 0.000783712 0.000673709 0.000544327 0.000531395 0.000524933 0.000524939 0.00051847 0.000518476 0.000512006 0.000512 0.000505537 0.000505531 0.000499067 0.000803148 0.000803139 0.000499061 0.000492597 0.000706083 0.000512012 0.000518482 0.000492603 0.000486133 0.000486127 0.000479662 0.000505525 0.000479657 0.000473192 0.000809623 0.000809633 0.000809613 0.00080313 0.000512018 0.000518488 0.000686668 0.000712688 0.000706222 0.000712693 0.000706229 0.000699758 0.0007127 0.000699764 0.000693294 0.00068665 0.000499247 0.000395699 0.000440887 0.000706154 0.00052495 0.000751382 0.000757864 0.000751389 0.000757871 0.000764346 0.000764354 0.00077083 0.000770838 0.000777315 0.000777322 0.000783801 0.000783808 0.000790288 0.000790295 0.000783815 0.000790301 0.000764361 0.000783821 0.000790308 0.000790281 0.000783828 0.000790314 0.000796781 0.000783834 0.000790322 0.000796801 0.000796809 0.000790328 0.000796816 0.000790335 0.000796822 0.000803297 0.000777351 0.000790334 0.000796827 0.000783853 0.000563926 0.000550822 0.000492679 0.000589788 0.000596257 0.000589796 0.000596266 0.000589805 0.000596274 0.000589813 0.000596282 0.000602742 0.000583344 0.000583352 0.000576884 0.0005767 0.000544355 0.000719164 0.000453741 0.00047984 0.000589762 0.000583292 0.000589754 0.000583284 0.000589746 0.000583275 0.000589737 0.000596208 0.000596199 0.000602671 0.000486135 0.00060902 0.000602557 0.000609026 0.000602563 0.000609032 0.000602569 0.000596099 0.000596105 0.000589635 0.000609039 0.000615503 0.000589641 0.000583172 0.000615509 0.000621974 0.000751474 0.000531559 0.000796769 0.000796762 0.000803251 0.000803243 0.000796754 0.000803235 0.000809733 0.00080331 0.000803323 0.0008098 0.000809807 0.000382452 0.000751396 0.000725546 0.000725539 0.00073202 0.000777397 0.00080974 0.000434429 0.000809814 0.000395591 0.000389106 0.00042783 0.000732013 0.000738493 0.000751467 0.000402073 0.000796845 0.00071917 0.000725634 0.000395405 0.000486123 0.000395711 0.000389229 0.000809824 0.00060275 0.000609211 0.000693301 0.000686831 0.000499276 0.000809603 0.000816085 0.000816289 0.000816295 0.000816282 0.000538067 0.000544527 0.0008163 0.000577167 0.000408661 0.000415129 0.000473185 0.000466721 0.000382614 0.000382624 0.00038256 0.000816298 0.000816293 0.000505746 0.000816224 0.000816231 0.000816217 0.000583266 0.000576805 0.000602662 0.000609134 0.000466726 0.000460255 0.000460249 0.000453783 0.000486139 0.000538055 0.000609045 0.00062198 0.000628445 0.00081611 0.00081612 0.000512122 0.000518586 0.00068674 0.000680263 0.000757943 0.000680252 0.000673782 0.000673799 0.000667316 0.000667312 0.00066084 0.000660847 0.000654372 0.000654365 0.000647899 0.000647906 0.000641434 0.000641425 0.000453969 0.000453981 0.000583166 0.000576702 0.000609142 0.000744914 0.000628438 0.00063491 0.000634916 0.000641382 0.000447392 0.000699771 0.000518472 0.000512103 0.000382609 0.000796745 0.000803219 0.000421399 0.000427883 0.000414915 0.000389242 0.000382759 0.000382745 0.000395606 0.000783856 0.000803312 0.000415139 0.000421606 0.000583361 0.00072564 0.000732103 0.000803349 0.000816303 0.000382545 0.000382536 0.000576702 0.000499064 0.000686839 0.000680369 0.00068036 0.000673899 0.000673908 0.000667438 0.000667427 0.000660967 0.000660977 0.000654508 0.000654496 0.000648036 0.000648046 0.000641576 0.000641563 0.000609219 0.00057047 0.000570631 0.000615686 0.000615672 0.000544536 0.000615605 0.000615589 0.000744919 0.000531607 0.000453778 0.000447312 0.000816075 0.000803122 0.000576796 0.000570334 0.000583258 0.000570325 0.000563864 0.000563855 0.000557393 0.000557384 0.000550922 0.000550914 0.000544456 0.000544461 0.000544448 0.000777374 0.000641389 0.000647855 0.000641443 0.000557465 0.000518598 0.000427891 0.000434366 0.000434374 0.000440848 0.000440856 0.000447329 0.000447338 0.000453809 0.000453818 0.000460288 0.000460297 0.000466767 0.000796651 0.000783906 0.000783914 0.000777435 0.00077744 0.000770965 0.00077097 0.000764496 0.000764501 0.000777451 0.000758024 0.000758022 0.000777241 0.000777233 0.000770763 0.000770755 0.000764287 0.000764279 0.000757812 0.000770754 0.000757809 0.000751338 0.000751346 0.000744871 0.000744879 0.000738405 0.000738408 0.000731938 0.00073193 0.000725465 0.000725467 0.000718999 0.000718993 0.000712528 0.000712535 0.000706064 0.00070607 0.000699599 0.000699593 0.000693129 0.000693122 0.000686659 0.000686652 0.000680189 0.000680195 0.000673726 0.00067372 0.000667257 0.000699607 0.000699585 0.000667251 0.000660789 0.000744864 0.000673732 0.000660794 0.000654327 0.000654321 0.000647859 0.000647863 0.000641396 0.000641392 0.00063493 0.000634935 0.000628467 0.000628463 0.000622 0.000622005 0.000615538 0.000615532 0.000609071 0.000609066 0.000602595 0.000712535 0.000673713 0.000667245 0.000615543 0.000512132 0.000757829 0.000402027 0.000790264 0.000460456 0.000453992 0.000460467 0.000447517 0.000447513 0.000725605 0.000738574 0.000777337 0.000576697 0.000570233 0.000570228 0.000563764 0.000563759 0.000557295 0.000557289 0.000550827 0.000447317 0.000440845 0.000440839 0.000434372 0.000706053 0.000589596 0.000563726 0.000570184 0.000563719 0.000570177 0.000563713 0.000570174 0.000576643 0.000576723 0.000563708 0.000524927 0.000531389 0.000524921 0.000531383 0.00073844 0.000557246 0.000447463 0.000550995 0.00058315 0.000725525 0.000505707 0.00049924 0.000505713 0.000570343 0.000680202 0.000673738 0.000680209 0.000492769 0.000505548 0.000615614 0.000770805 0.000732103 0.000434473 0.000434463 0.000427989 0.000427979 0.00075797 0.000634903 0.000796695 0.00077728 0.000466758 0.000473236 0.000499146 0.000492673 0.000757942 0.000777365 0.000415066 0.000777372 0.000783878 0.000376271 0.000376258 0.000376285 0.000499286 0.000822779 0.000603133 0.000822781 0.000822786 0.000816301 0.000822791 0.000816295 0.000822705 0.00040867 0.000758029 0.000615701 0.000822559 0.000822649 0.000822689 0.000816142 0.000822705 0.000816153 0.000822555 0.000719176 0.000822708 0.000822614 0.000822783 0.000815475 0.000822771 0.00073211 0.000602598 0.000641583 0.000421616 0.000796643 0.000382437 0.000524915 0.000615528 0.000434384 0.000427903 0.000460244 0.000531377 0.000822549 0.000816066 0.000376131 0.000376141 0.000382634 0.000376153 0.000376121 0.000382644 0.000376164 0.000376058 0.000376051 0.000602567 0.000512024 0.000518494 0.000524958 0.000524964 0.000531427 0.000531434 0.00056377 0.000550832 0.000576708 0.00046026 0.000466732 0.000596127 0.000622011 0.000473244 0.000634922 0.000428084 0.000428079 0.000647914 0.000738573 0.000738589 0.000492777 0.000693249 0.000647861 0.000654328 0.000654321 0.000660795 0.000635115 0.000660802 0.000550996 0.000551004 0.000550993 0.000790174 0.000486301 0.000499182 0.000699716 0.000421504 0.000421494 0.000466873 0.000693185 0.000537844 0.000486256 0.000693285 0.000576875 0.00075135 0.000557402 0.000537999 0.000550821 0.000628432 0.000609151 0.000538001 0.00070619 0.000738501 0.000744976 0.000744968 0.000751452 0.000434454 0.000382529 0.000376044 0.000667269 0.00044732 0.000796704 0.000434358 0.000421392 0.000414909 0.000738444 0.000731965 0.000770894 0.000751443 0.000757929 0.000622077 0.000622086 0.000415055 0.000816135 0.000822634 0.000382655 0.000376181 0.000770896 0.000544545 0.000453782 0.000505756 0.000635122 0.000764504 0.000557239 0.000648053 0.000428094 0.000427915 0.000421431 0.000596129 0.000602591 0.000673706 0.000667238 0.000369794 0.000790166 0.000369636 0.000758038 0.000369558 0.00036981 0.000376299 0.000369826 0.000421433 0.00058317 0.000440849 0.000537838 0.000460266 0.000499137 0.000615547 0.000434559 0.000434569 0.00044103 0.000673745 0.000680216 0.000667274 0.000550998 0.000557467 0.000544528 0.000524971 0.00053144 0.000466738 0.000641451 0.00051203 0.00050556 0.000479716 0.000622151 0.000622136 0.000615664 0.000667276 0.000414959 0.000414954 0.000408485 0.000518605 0.000512145 0.00036948 0.00070618 0.000783699 0.000369631 0.000525062 0.000525051 0.0004279 0.000770957 0.000453827 0.000460306 0.000796872 0.000796877 0.000440867 0.00075154 0.000751544 0.000434523 0.000434534 0.000428064 0.000434548 0.000777367 0.000809786 0.000389124 0.000395723 0.000738433 0.000803114 0.00080313 0.000796844 0.000790402 0.000725573 0.000440874 0.000563754 0.000777306 0.00050562 0.000473357 0.000712521 0.000718985 0.000712514 0.000718977 0.000712507 0.000718969 0.000725439 0.000706045 0.000512215 0.000512225 0.000518684 0.000576644 0.000486238 0.000660777 0.000499056 0.000505519 0.000499051 0.000505513 0.000486342 0.00047988 0.000486353 0.000479891 0.00047342 0.000680174 0.000441003 0.00058316 0.000389256 0.000583327 0.000634966 0.000634952 0.000641417 0.000634944 0.000628479 0.000576822 0.00054447 0.000609057 0.000596087 0.000596179 0.000602652 0.000596175 0.000596111 0.000589647 0.000596117 0.000589653 0.000583183 0.000596224 0.00061549 0.000408431 0.000408424 0.000401947 0.000401939 0.00039546 0.000395453 0.000388973 0.000388981 0.000382497 0.0003825 0.000382492 0.000376024 0.000376024 0.000382509 0.000376027 0.000486208 0.000757936 0.000492776 0.00054449 0.000602727 0.000622125 0.000628596 0.000790251 0.00081619 0.000492609 0.000486144 0.000492615 0.00048615 0.000764293 0.000531421 0.000447323 0.000758016 0.000751542 0.000745072 0.000453881 0.00037606 0.000634897 0.000686679 0.00068668 0.000492623 0.000790359 0.000809747 0.000816238 0.000822724 0.000822724 0.000816243 0.000822765 0.000816255 0.000822784 0.000816264 0.000822757 0.00082921 0.000809758 0.000829082 0.000712658 0.000712649 0.000479679 0.000382523 0.000803322 0.00069315 0.000693151 0.000699623 0.000537889 0.000719128 0.000777287 0.000641368 0.000822634 0.000757927 0.000822783 0.000816266 0.000822757 0.000382702 0.000660786 0.000654314 0.000550906 0.000544429 0.000492666 0.000563835 0.000790225 0.000401932 0.000790346 0.000382519 0.000376043 0.0004149 0.000816268 0.000473225 0.000466744 0.000415021 0.000415012 0.000421486 0.000415002 0.00042148 0.000414995 0.000415033 0.000427965 0.000822757 0.000829248 0.000829251 0.000751401 0.000408584 0.000395457 0.000764393 0.000764391 0.000816151 0.000822693 0.000764416 0.000764413 0.000369547 0.000369538 0.000369701 0.000369719 0.00036963 0.000809663 0.000680053 0.000686616 0.000382742 0.000816275 0.000822703 0.000421631 0.000499287 0.000829152 0.000829237 0.000829243 0.00047343 0.000466959 0.000408573 0.000402027 0.000829264 0.000829129 0.000829251 0.000829341 0.000829085 0.000829013 0.000829273 0.000829264 0.000829259 0.0008304 0.000551049 0.000557478 0.000557524 0.000564178 0.000706158 0.000828856 0.000829371 0.000829007 0.00073207 0.000499081 0.000492589 0.0004923 0.000486115 0.000402082 0.00039554 0.000369467 0.000563702 0.000440997 0.000447472 0.000486295 0.000686309 0.000395677 0.000389265 0.000460343 0.000466725 0.000454046 0.00078359 0.000777209 0.000363164 0.000596065 0.000589582 0.000609042 0.000589668 0.00058964 0.000589621 0.00066728 0.000550855 0.000479682 0.000576706 0.000460268 0.000440851 0.000369541 0.000602644 0.000609109 0.000647927 0.000654387 0.000751555 0.000660803 0.000499243 0.000505716 0.00062847 0.000745068 0.000738592 0.000441034 0.000563964 0.000628654 0.000628662 0.000693241 0.000686774 0.000486308 0.000596123 0.000602587 0.000622 0.000628476 0.000699629 0.000706098 0.000389181 0.000783703 0.000641409 0.000647883 0.000492723 0.000499199 0.000693074 0.000473336 0.000796826 0.000719121 0.000544306 0.000544314 0.000466929 0.000511981 0.000511975 0.000757824 0.000751351 0.000751358 0.00074488 0.000563954 0.000460388 0.000744877 0.000738404 0.00073841 0.000731934 0.000731932 0.000725462 0.000725466 0.000718997 0.000576687 0.000518457 0.000699648 0.000693099 0.000628588 0.000635056 0.000557258 0.000550952 0.000557422 0.000544525 0.000538064 0.000512181 0.000512191 0.000732031 0.000486294 0.000479821 0.000628424 0.000615657 0.000389012 0.000712664 0.000473205 0.00053801 0.000531541 0.000770812 0.000809772 0.000428 0.000641358 0.000744985 0.000544362 0.000706085 0.000376112 0.000369618 0.000408597 0.000402108 0.000388999 0.000537982 0.000537963 0.00080318 0.000803168 0.000660774 0.000673744 0.000673734 0.000673743 0.000764415 0.000796708 0.000744947 0.000473198 0.000557317 0.000731973 0.000725491 0.000725486 0.000719014 0.000719023 0.000628549 0.000628558 0.000622093 0.000622015 0.000401932 0.00040858 0.000764417 0.000770895 0.000376262 0.000369819 0.00078386 0.000790333 0.000524781 0.000803303 0.000835682 0.000836094 0.000836078 0.000725325 0.000731777 0.000731888 0.000738346 0.000764443 0.000770907 0.000660882 0.00065444 0.000738489 0.000518482 0.00052504 0.000512162 0.000835421 0.000835736 0.000758018 0.000835672 0.000835488 0.000835876 0.00054444 0.000538067 0.000537226 0.000790388 0.000783894 0.000835754 0.000803881 0.000835736 0.000835604 0.000835521 0.000634895 0.000628646 0.000622257 0.000776564 0.000770753 0.000738249 0.000744832 0.000466844 0.000460478 0.000473241 0.000376312 0.000790194 0.000544239 0.00053829 0.000369841 0.000414949 0.000667313 0.000466743 0.000473181 0.000473165 0.000382988 0.000563949 0.000570742 0.000577469 0.000577758 0.000583689 0.000584813 0.000590397 0.000592138 0.000597261 0.000558031 0.000718984 0.000434579 0.000440507 0.000363226 0.000363289 0.000363327 0.000563586 0.0005702 0.000577208 0.000576941 0.000834903 0.000839539 0.000833673 0.000835072 0.000839781 0.000833415 0.000835829 0.00084002 0.000833249 0.000842018 0.000836284 0.000363158 0.000660281 0.000583406 0.000836054 0.000460115 0.000842232 0.000363145 0.0008422 0.000842231 0.000570965 0.00084225 0.000556498 0.000622321 0.000363024 0.000726147 0.00059605 0.000583176 0.000589645 0.000402015 0.000609088 0.00041495 0.000421431 0.000660804 0.000660803 0.00065432 0.000654332 0.000647855 0.000680197 0.000434376 0.000362373 0.000589599 0.000693137 0.000453794 0.000628456 0.000634941 0.000473205 0.000505565 0.000499089 0.000583184 0.000576714 0.000499128 0.000505603 0.000745066 0.000524961 0.000531435 0.000537911 0.000518488 0.000537903 0.000706087 0.00060259 0.000609057 0.000550996 0.000538057 0.000531596 0.000531594 0.000525133 0.00052514 0.000518673 0.000563932 0.000660788 0.000583209 0.000473189 0.000453837 0.000628646 0.000641477 0.000505716 0.000460316 0.000466785 0.000466795 0.000447511 0.000654412 0.000660874 0.000621996 0.000635077 0.000602564 0.000757932 0.00047973 0.000518609 0.000641538 0.000641523 0.000648003 0.000512139 0.00040855 0.000738589 0.000745062 0.000732105 0.000453775 0.000764407 0.000454039 0.000453999 0.000647875 0.000654352 0.000712636 0.000473264 0.000686763 0.000680299 0.000408526 0.000693227 0.000758009 0.000783924 0.000622176 0.000843267 0.000434351 0.000745052 0.000719002 0.000770751 0.000764283 0.000764128 0.000757791 0.0007576 0.000751348 0.000751336 0.000843179 0.000499191 0.000725467 0.000356614 0.000447359 0.00076433 0.000719006 0.000712537 0.000738597 0.000428073 0.000421591 0.000783706 0.000479612 0.000777437 0.000777034 0.000783921 0.000356497 0.000486247 0.000479779 0.000479643 0.000356741 0.000356497 0.000362989 0.000362987 0.000369478 0.000369476 0.000375965 0.000375963 0.000369475 0.000375972 0.000369474 0.000382475 0.000764295 0.000434556 0.000434555 0.000843536 0.000837503 0.000837873 0.000830538 0.000836985 0.000843506 0.000836726 0.000837762 0.000830538 0.000836647 0.000441034 0.000525072 0.000525069 0.000531536 0.000402192 0.000402206 0.000408739 0.000699584 0.000700044 0.000738375 0.000440992 0.000447473 0.000375952 0.00038243 0.000388963 0.000388906 0.000382716 0.00041493 0.000362949 0.000369357 0.000362177 0.000375996 0.00055734 0.000388953 0.000641398 0.000596151 0.000550858 0.000583151 0.000557463 0.000557464 0.00047977 0.000492715 0.000550791 0.000550786 0.00036328 0.00035681 0.000389151 0.000395634 0.000356494 0.000796308 0.000809724 0.000811812 0.000816492 0.000447489 0.000525127 0.000796658 0.000628458 0.000531053 0.000415161 0.000415172 0.000421653 0.000822283 0.000815876 0.000809555 0.000809301 0.000816037 0.000803108 0.00079664 0.00040219 0.000783899 0.000421426 0.000427999 0.000421419 0.000434846 0.000434465 0.000441065 0.000583121 0.000570218 0.000505665 0.000843463 0.000836705 0.0008369 0.000836816 0.000829149 0.000843447 0.000837009 0.000829562 0.000699579 0.000796867 0.000777248 0.000822681 0.000518654 0.000570254 0.000518672 0.000356495 0.000362987 0.000363004 0.000369504 0.0003565 0.000363039 0.000415111 0.000415119 0.000809589 0.000492603 0.000790273 0.000783783 0.000738456 0.000764271 0.000809766 0.000803274 0.000414939 0.000414947 0.000421424 0.000654344 0.00066083 0.000660834 0.00066731 0.000667323 0.000673781 0.000440839 0.000440824 0.000434343 0.000447302 0.000453781 0.000518423 0.000518201 0.000511532 0.000518447 0.000777419 0.000770944 0.000402018 0.000402009 0.000408499 0.000777231 0.000421433 0.000427909 0.000434394 0.00080943 0.000492812 0.000492567 0.000453798 0.000460257 0.000447369 0.000809796 0.000843108 0.000837012 0.000356548 0.000363145 0.000777342 0.00038899 0.000389115 0.000725639 0.000725618 0.000719128 0.000712704 0.000712719 0.000706249 0.000706043 0.000699926 0.000719079 0.000726289 0.000706241 0.000505673 0.000583123 0.000589667 0.000356489 0.000362989 0.000751791 0.000745104 0.000751542 0.000731959 0.000731952 0.000738425 0.000544321 0.000790186 0.000843505 0.000836591 0.000837394 0.000829437 0.000557412 0.000505542 0.000732067 0.000647865 0.000453917 0.000440983 0.000356546 0.000363074 0.000363004 0.000369573 0.000369523 0.000363 0.000376096 0.000369549 0.000363023 0.000712612 0.000434403 0.00046692 0.000473395 0.000770863 0.000706057 0.000512171 0.00070605 0.00050561 0.000512084 0.000512094 0.000518557 0.00051855 0.000518567 0.00052503 0.000525042 0.000531501 0.000531487 0.000505629 0.000770775 0.000479788 0.000480131 0.000732052 0.000447324 0.000777332 0.000479702 0.000486182 0.000531421 0.000544361 0.00078384 0.000777369 0.000570223 0.000563748 0.000557284 0.000550817 0.000719156 0.000725626 0.000732104 0.000473258 0.000401902 0.000453945 0.000479651 0.000583156 0.000809752 0.000706235 0.000699803 0.000693339 0.000693317 0.00068685 0.000686624 0.000680342 0.000680371 0.000673911 0.00067405 0.00066755 0.000667462 0.000661008 0.000661446 0.000654654 0.000725456 0.000745046 0.000654541 0.000648175 0.000706128 0.000499237 0.000719095 0.000783847 0.000770891 0.000531587 0.000725471 0.000686662 0.000680308 0.000673833 0.000673817 0.000667344 0.000667362 0.000751347 0.000466805 0.000460326 0.000408416 0.000382455 0.000388961 0.000466717 0.000660799 0.000686656 0.000693269 0.000686803 0.000693277 0.000686812 0.000680338 0.00068035 0.000673876 0.000673867 0.000667403 0.000667412 0.000660942 0.000660931 0.000654466 0.000654476 0.000738408 0.000550795 0.000790395 0.000492804 0.000693169 0.0006867 0.000693176 0.000686706 0.00068668 0.000686674 0.000505242 0.000486161 0.000699594 0.000537858 0.000654337 0.000647874 0.000648273 0.000641458 0.000641386 0.000634407 0.00063485 0.000628456 0.000628448 0.00062199 0.000622066 0.000615669 0.000609083 0.000609755 0.000602195 0.000621994 0.000356486 0.000362989 0.000356486 0.000363 0.000576713 0.000570245 0.000570243 0.000563769 0.000563773 0.0005573 0.000557306 0.000673653 0.0006478 0.000356503 0.000505932 0.000518577 0.000473349 0.000744908 0.000803269 0.000751335 0.000544521 0.000647848 0.000680166 0.000615622 0.000609158 0.000530732 0.000518469 0.000693135 0.000770887 0.000667268 0.000511994 0.000512206 0.000609469 0.000615832 0.00060993 0.000744887 0.000738415 0.000751364 0.000583318 0.000576857 0.000576866 0.000570396 0.000570405 0.000563936 0.000621967 0.000719056 0.000693129 0.000667329 0.000712626 0.00070616 0.000596013 0.000427874 0.000427867 0.000421383 0.000628617 0.000576661 0.000525134 0.000492592 0.00038902 0.000680228 0.000602532 0.000609025 0.000570387 0.000589575 0.000524952 0.000531414 0.000524945 0.000699742 0.000511987 0.000596095 0.000654455 0.000622201 0.000602679 0.000660839 0.000460276 0.000686782 0.000770962 0.000531495 0.000570234 0.000440936 0.000440928 0.000434448 0.000473366 0.000479833 0.000602555 0.00055729 0.000550804 0.000576813 0.000570352 0.000570361 0.000583177 0.00056394 0.000557252 0.000570241 0.000621956 0.000460396 0.000466865 0.000680181 0.000699656 0.00058963 0.0005